                         Program Version 4.1.2  - RELEASE  -
|  1> # CHELPG calculation for  /home/lin1209/test_ligand/NH3_2C_Angew-1+H_minimized/geo_xtb/xtbopt.xyz
|  2> ! wB97X-D3 def2-TZVP TightSCF CHELPG Grid4
|  3>
|  4> %base "charges"
|  5>
|  6> %pal nprocs 128
|  7> end
|  8> #     charge multiplicity
|  9> * xyz 1 1
| 10>   N           0.54043272271497   -3.71895032398973    0.79410079297299
| 11>   C          -0.07829672114562    2.67439018289003    0.24217136973119
| 12>   H          -0.32098543800784   -4.09355127559432    0.37539439023346
| 13>   H           0.69905632281483   -4.18492833318179    1.69645292112050
| 14>   H           1.32415793662676   -3.93821815572802    0.16457821204747
| 15>   C           0.42326644383892   -2.23108581569009    0.95320269925065
| 16>   H          -0.42768922528377   -2.01663405480655    1.60131643280006
| 17>   H           1.32945019872262   -1.86144062169340    1.43463900245509
| 18>   C           0.23679827628600   -1.55561398440626   -0.39985566170679
| 19>   H          -0.66974712972372   -1.92352891946558   -0.88312522371082
| 20>   H           1.09146186322840   -1.76730174835436   -1.04522802907578
| 21>   C           1.26803956741273    0.71747667657920   -0.08893658471698
| 22>   C           1.16741595145579    2.08095738649398    0.12470070102046
| 23>   C           0.12314883942323   -0.06083564587133   -0.19060369770640
| 24>   C          -1.12271904484678    0.53801398839826   -0.06856204255296
| 25>   C          -1.22294818979891    1.90192393021987    0.14409387858930
| 26>   H           2.24269063378247    0.26207241535497   -0.19169859459876
| 27>   H           2.06176156400495    2.67995084829395    0.19569901634190
| 28>   H          -2.01946135829497   -0.05856421059955   -0.15384478783318
| 29>   H          -0.15626942255060    3.73811637205882    0.40452896503693
| 30>   H          -2.19556379065934    2.36085128909195    0.22947624030196
| 31> **                         ****END OF INPUT****

CARTESIAN COORDINATES (ANGSTROEM)
---------------------------------
  N      0.540433   -3.718950    0.794101
  C     -0.078297    2.674390    0.242171
  H     -0.320985   -4.093551    0.375394
  H      0.699056   -4.184928    1.696453
  H      1.324158   -3.938218    0.164578
  C      0.423266   -2.231086    0.953203
  H     -0.427689   -2.016634    1.601316
  H      1.329450   -1.861441    1.434639
  C      0.236798   -1.555614   -0.399856
  H     -0.669747   -1.923529   -0.883125
  H      1.091462   -1.767302   -1.045228
  C      1.268040    0.717477   -0.088937
  C      1.167416    2.080957    0.124701
  C      0.123149   -0.060836   -0.190604
  C     -1.122719    0.538014   -0.068562
  C     -1.222948    1.901924    0.144094
  H      2.242691    0.262072   -0.191699
  H      2.061762    2.679951    0.195699
  H     -2.019461   -0.058564   -0.153845
  H     -0.156269    3.738116    0.404529
  H     -2.195564    2.360851    0.229476

 Total Charge           Charge          ....    1
 Multiplicity           Mult            ....    1
 Number of Electrons    NEL             ....   66
 Basis Dimension        Dim             ....  351

ORBITAL ENERGIES
----------------

  NO   OCC          E(Eh)            E(eV)
   0   2.0000     -14.748009      -401.3137
   1   2.0000     -10.516338      -286.1641
   2   2.0000     -10.448106      -284.3074
   3   2.0000     -10.413658      -283.3700
   4   2.0000     -10.394248      -282.8419
   5   2.0000     -10.393768      -282.8288
   6   2.0000     -10.386804      -282.6393
   7   2.0000     -10.386442      -282.6294
   8   2.0000     -10.383763      -282.5566
   9   2.0000      -1.320593       -35.9352
  10   2.0000      -1.110022       -30.2052
  11   2.0000      -1.066184       -29.0123
  12   2.0000      -0.987286       -26.8654
  13   2.0000      -0.978884       -26.6368
  14   2.0000      -0.926062       -25.1994
  15   2.0000      -0.891675       -24.2637
  16   2.0000      -0.879920       -23.9438
  17   2.0000      -0.834706       -22.7135
  18   2.0000      -0.811442       -22.0805
  19   2.0000      -0.786296       -21.3962
  20   2.0000      -0.735261       -20.0075
  21   2.0000      -0.732235       -19.9251
  22   2.0000      -0.672081       -18.2883
  23   2.0000      -0.670663       -18.2497
  24   2.0000      -0.666179       -18.1276
  25   2.0000      -0.634034       -17.2529
  26   2.0000      -0.627902       -17.0861
  27   2.0000      -0.618571       -16.8322
  28   2.0000      -0.584698       -15.9104
  29   2.0000      -0.551996       -15.0206
  30   2.0000      -0.548092       -14.9143
  31   2.0000      -0.454539       -12.3686
  32   2.0000      -0.452451       -12.3118
  33   0.0000      -0.100496        -2.7346
  34   0.0000      -0.057130        -1.5546
  35   0.0000      -0.049391        -1.3440
  36   0.0000      -0.036952        -1.0055
  37   0.0000      -0.035225        -0.9585

MULLIKEN ATOMIC CHARGES
-----------------------
   0 N :   -0.301386
   1 C :   -0.135877
   2 H :    0.336029
   3 H :    0.342719
   4 H :    0.335139
   5 C :   -0.246234
   6 H :    0.208064
   7 H :    0.206205
   8 C :   -0.322428
   9 H :    0.171208
  10 H :    0.176238
  11 C :   -0.264121
  12 C :   -0.102598
  13 C :    0.221655
  14 C :   -0.254442
  15 C :   -0.100681
  16 H :    0.135775
  17 H :    0.152454
  18 H :    0.133979
  19 H :    0.155573
  20 H :    0.152731
Sum of atomic charges:    1.0000000

LOEWDIN ATOMIC CHARGES
----------------------
   0 N :    0.164834
   1 C :   -0.113735
   2 H :    0.222984
   3 H :    0.221805
   4 H :    0.223095
   5 C :   -0.243871
   6 H :    0.156588
   7 H :    0.155824
   8 C :   -0.224744
   9 H :    0.151945
  10 H :    0.152543
  11 C :   -0.116370
  12 C :   -0.117133
  13 C :   -0.164664
  14 C :   -0.114483
  15 C :   -0.116629
  16 H :    0.148786
  17 H :    0.154311
  18 H :    0.149359
  19 H :    0.155056
  20 H :    0.154498

  Mayer bond orders larger than 0.1
B(  0-N ,  2-H ) :   0.8735 B(  0-N ,  3-H ) :   0.8718 B(  0-N ,  4-H ) :   0.8730
B(  0-N ,  5-C ) :   0.8568 B(  1-C , 12-C ) :   1.4078 B(  1-C , 15-C ) :   1.4096
B(  1-C , 19-H ) :   0.9678 B(  5-C ,  6-H ) :   0.9586 B(  5-C ,  7-H ) :   0.9579
B(  5-C ,  8-C ) :   0.9405 B(  8-C ,  9-H ) :   0.9741 B(  8-C , 10-H ) :   0.9740
B(  8-C , 13-C ) :   0.8858 B( 11-C , 12-C ) :   1.4610 B( 11-C , 13-C ) :   1.3329
B( 11-C , 16-H ) :   0.9731 B( 12-C , 17-H ) :   0.9696 B( 13-C , 14-C ) :   1.3500
B( 14-C , 15-C ) :   1.4543 B( 14-C , 18-H ) :   0.9743 B( 15-C , 20-H ) :   0.9698

Dispersion correction           -0.006067845
FINAL SINGLE POINT ENERGY      -366.617726979001

DIPOLE MOMENT
-------------
                                X             Y             Z
Electronic contribution:     -0.38048       3.62113      -0.47236
Nuclear contribution   :      0.92631      -8.85109       1.42189
                        -----------------------------------------
Total Dipole Moment    :      0.54582      -5.22996       0.94953
                        -----------------------------------------
Magnitude (a.u.)       :      5.34341
Magnitude (Debye)      :     13.58186

Rotational constants in cm-1:     0.145696     0.028222     0.025318
Rotational constants in MHz :  4367.851137   846.077958   759.002082

                             ****ORCA TERMINATED NORMALLY****
TOTAL RUN TIME: 0 days 0 hours 1 minutes 10 seconds 214 msec
